
Host: LAPTOP-BQRV794S

Timers On : Fri Aug 15 16:42:37 2025
Timers Off: Fri Aug 15 16:42:39 2025

Wall Time:        2.00 seconds

                                                       Time (seconds)
Module                                       User      System        Wall        Calls

--------------------------------------------------------------------------------------

**************************************************************************************

Host: LAPTOP-BQRV794S

Timers On : Fri Aug 15 16:46:26 2025
Timers Off: Fri Aug 15 16:46:28 2025

Wall Time:        2.20 seconds

                                                       Time (seconds)
Module                                       User      System        Wall        Calls

--------------------------------------------------------------------------------------

**************************************************************************************

Host: LAPTOP-BQRV794S

Timers On : Fri Aug 15 19:10:18 2025
Timers Off: Fri Aug 15 19:10:26 2025

Wall Time:        7.78 seconds

                                                       Time (seconds)
Module                                       User      System        Wall        Calls

--------------------------------------------------------------------------------------

**************************************************************************************

Host: LAPTOP-BQRV794S

Timers On : Sat Aug 16 03:21:13 2025
Timers Off: Sat Aug 16 03:21:15 2025

Wall Time:        2.32 seconds

                                                       Time (seconds)
Module                                       User      System        Wall        Calls

--------------------------------------------------------------------------------------

**************************************************************************************

Host: LAPTOP-BQRV794S

Timers On : Sat Aug 16 03:21:26 2025
Timers Off: Sat Aug 16 03:21:28 2025

Wall Time:        1.55 seconds

                                                       Time (seconds)
Module                                       User      System        Wall        Calls

--------------------------------------------------------------------------------------

**************************************************************************************

Host: LAPTOP-BQRV794S

Timers On : Sat Aug 16 03:21:42 2025
Timers Off: Sat Aug 16 03:21:44 2025

Wall Time:        1.72 seconds

                                                       Time (seconds)
Module                                       User      System        Wall        Calls

--------------------------------------------------------------------------------------

**************************************************************************************

Host: LAPTOP-BQRV794S

Timers On : Sat Aug 16 03:22:23 2025
Timers Off: Sat Aug 16 03:22:24 2025

Wall Time:        1.44 seconds

                                                       Time (seconds)
Module                                       User      System        Wall        Calls

--------------------------------------------------------------------------------------

**************************************************************************************

Host: LAPTOP-BQRV794S

Timers On : Sat Aug 16 03:22:44 2025
Timers Off: Sat Aug 16 03:22:46 2025

Wall Time:        2.65 seconds

                                                       Time (seconds)
Module                                       User      System        Wall        Calls

--------------------------------------------------------------------------------------

**************************************************************************************

Host: LAPTOP-BQRV794S

Timers On : Sat Aug 16 03:22:54 2025
Timers Off: Sat Aug 16 03:22:59 2025

Wall Time:        4.88 seconds

                                                       Time (seconds)
Module                                       User      System        Wall        Calls

--------------------------------------------------------------------------------------

**************************************************************************************

Host: LAPTOP-BQRV794S

Timers On : Sat Aug 16 03:23:46 2025
Timers Off: Sat Aug 16 03:23:48 2025

Wall Time:        1.80 seconds

                                                       Time (seconds)
Module                                       User      System        Wall        Calls

--------------------------------------------------------------------------------------

**************************************************************************************
