
Host: LAPTOP-BQRV794S

Timers On : Fri Aug 15 16:42:37 2025
Timers Off: Fri Aug 15 16:42:39 2025

Wall Time:        2.00 seconds

                                                       Time (seconds)
Module                                       User      System        Wall        Calls

--------------------------------------------------------------------------------------

**************************************************************************************

Host: LAPTOP-BQRV794S

Timers On : Fri Aug 15 16:46:26 2025
Timers Off: Fri Aug 15 16:46:28 2025

Wall Time:        2.20 seconds

                                                       Time (seconds)
Module                                       User      System        Wall        Calls

--------------------------------------------------------------------------------------

**************************************************************************************

Host: LAPTOP-BQRV794S

Timers On : Fri Aug 15 19:10:18 2025
Timers Off: Fri Aug 15 19:10:26 2025

Wall Time:        7.78 seconds

                                                       Time (seconds)
Module                                       User      System        Wall        Calls

--------------------------------------------------------------------------------------

**************************************************************************************

Host: LAPTOP-BQRV794S

Timers On : Sat Aug 16 03:21:13 2025
Timers Off: Sat Aug 16 03:21:15 2025

Wall Time:        2.32 seconds

                                                       Time (seconds)
Module                                       User      System        Wall        Calls

--------------------------------------------------------------------------------------

**************************************************************************************

Host: LAPTOP-BQRV794S

Timers On : Sat Aug 16 03:21:26 2025
Timers Off: Sat Aug 16 03:21:28 2025

Wall Time:        1.55 seconds

                                                       Time (seconds)
Module                                       User      System        Wall        Calls

--------------------------------------------------------------------------------------

**************************************************************************************

Host: LAPTOP-BQRV794S

Timers On : Sat Aug 16 03:21:42 2025
Timers Off: Sat Aug 16 03:21:44 2025

Wall Time:        1.72 seconds

                                                       Time (seconds)
Module                                       User      System        Wall        Calls

--------------------------------------------------------------------------------------

**************************************************************************************

Host: LAPTOP-BQRV794S

Timers On : Sat Aug 16 03:22:23 2025
Timers Off: Sat Aug 16 03:22:24 2025

Wall Time:        1.44 seconds

                                                       Time (seconds)
Module                                       User      System        Wall        Calls

--------------------------------------------------------------------------------------

**************************************************************************************

Host: LAPTOP-BQRV794S

Timers On : Sat Aug 16 03:22:44 2025
Timers Off: Sat Aug 16 03:22:46 2025

Wall Time:        2.65 seconds

                                                       Time (seconds)
Module                                       User      System        Wall        Calls

--------------------------------------------------------------------------------------

**************************************************************************************

Host: LAPTOP-BQRV794S

Timers On : Sat Aug 16 03:22:54 2025
Timers Off: Sat Aug 16 03:22:59 2025

Wall Time:        4.88 seconds

                                                       Time (seconds)
Module                                       User      System        Wall        Calls

--------------------------------------------------------------------------------------

**************************************************************************************

Host: LAPTOP-BQRV794S

Timers On : Sat Aug 16 03:23:46 2025
Timers Off: Sat Aug 16 03:23:48 2025

Wall Time:        1.80 seconds

                                                       Time (seconds)
Module                                       User      System        Wall        Calls

--------------------------------------------------------------------------------------

**************************************************************************************

Host: LAPTOP-BQRV794S

Timers On : Sat Aug 16 03:37:50 2025
Timers Off: Sat Aug 16 03:37:52 2025

Wall Time:        1.30 seconds

                                                       Time (seconds)
Module                                       User      System        Wall        Calls

--------------------------------------------------------------------------------------

**************************************************************************************

Host: LAPTOP-BQRV794S

Timers On : Sat Aug 16 03:38:10 2025
Timers Off: Sat Aug 16 03:38:11 2025

Wall Time:        1.06 seconds

                                                       Time (seconds)
Module                                       User      System        Wall        Calls

--------------------------------------------------------------------------------------

**************************************************************************************

Host: LAPTOP-BQRV794S

Timers On : Sat Aug 16 03:39:23 2025
Timers Off: Sat Aug 16 03:39:26 2025

Wall Time:        2.94 seconds

                                                       Time (seconds)
Module                                       User      System        Wall        Calls

--------------------------------------------------------------------------------------

**************************************************************************************

Host: LAPTOP-BQRV794S

Timers On : Sat Aug 16 03:39:32 2025
Timers Off: Sat Aug 16 03:39:34 2025

Wall Time:        1.31 seconds

                                                       Time (seconds)
Module                                       User      System        Wall        Calls

--------------------------------------------------------------------------------------

**************************************************************************************

Host: LAPTOP-BQRV794S

Timers On : Sat Aug 16 03:39:48 2025
Timers Off: Sat Aug 16 03:39:50 2025

Wall Time:        1.49 seconds

                                                       Time (seconds)
Module                                       User      System        Wall        Calls

--------------------------------------------------------------------------------------

**************************************************************************************

Host: LAPTOP-BQRV794S

Timers On : Sat Aug 16 03:40:00 2025
Timers Off: Sat Aug 16 03:40:04 2025

Wall Time:        3.84 seconds

                                                       Time (seconds)
Module                                       User      System        Wall        Calls

--------------------------------------------------------------------------------------

**************************************************************************************

Host: LAPTOP-BQRV794S

Timers On : Sat Aug 16 03:46:57 2025
Timers Off: Sat Aug 16 03:46:58 2025

Wall Time:        1.40 seconds

                                                       Time (seconds)
Module                                       User      System        Wall        Calls

--------------------------------------------------------------------------------------

**************************************************************************************

Host: LAPTOP-BQRV794S

Timers On : Sat Aug 16 03:47:08 2025
Timers Off: Sat Aug 16 03:47:09 2025

Wall Time:        1.57 seconds

                                                       Time (seconds)
Module                                       User      System        Wall        Calls

--------------------------------------------------------------------------------------

**************************************************************************************

Host: LAPTOP-BQRV794S

Timers On : Sat Aug 16 03:47:25 2025
Timers Off: Sat Aug 16 03:47:27 2025

Wall Time:        2.02 seconds

                                                       Time (seconds)
Module                                       User      System        Wall        Calls

--------------------------------------------------------------------------------------

**************************************************************************************

Host: LAPTOP-BQRV794S

Timers On : Sat Aug 16 03:59:38 2025
Timers Off: Sat Aug 16 03:59:40 2025

Wall Time:        1.76 seconds

                                                       Time (seconds)
Module                                       User      System        Wall        Calls

--------------------------------------------------------------------------------------

**************************************************************************************
